---
H:
  name: Hydrogen
  symbol: H
  atomicNumber: 1
  atomicWeight: 1.008
  group: 1
  period: 1
  block: s
  electronConfiguration: 1s<sup>1</sup>
  keyIsotopes: "<sup>1</sup>H, <sup>2</sup>H"
  meltingPoint: 13.99
  boilingPoint: 20.271
He:
  name: Helium
  symbol: He
  atomicNumber: 2
  atomicWeight: 4.003
  group: 18
  period: 1
  block: s
  electronConfiguration: 1s<sup>2</sup>
  keyIsotopes: "<sup>4</sup>He"
  meltingPoint: Unknown
  boilingPoint: 4.222
Li:
  name: Lithium
  symbol: Li
  atomicNumber: 3
  atomicWeight: 6.94
  group: 1
  period: 2
  block: s
  electronConfiguration: "[He] 2s<sup>1</sup>"
  keyIsotopes: "<sup>7</sup>Li"
  meltingPoint: 453.65
  boilingPoint: 1615
Be:
  name: Beryllium
  symbol: Be
  atomicNumber: 4
  atomicWeight: 9.012
  group: 2
  period: 2
  block: s
  electronConfiguration: "[He] 2s<sup>2</sup>"
  keyIsotopes: "<sup>9</sup>Be"
  meltingPoint: 1560
  boilingPoint: 2741
B:
  name: Boron
  symbol: B
  atomicNumber: 5
  atomicWeight: 10.81
  group: 13
  period: 2
  block: p
  electronConfiguration: "[He] 2s<sup>2</sup>2p<sup>1</sup>"
  keyIsotopes: "<sup>11</sup>B"
  meltingPoint: 2350
  boilingPoint: 4273
C:
  name: Carbon
  symbol: C
  atomicNumber: 6
  atomicWeight: 12.011
  group: 14
  period: 2
  block: p
  electronConfiguration: "[He] 2s<sup>2</sup>2p<sup>2</sup>"
  keyIsotopes: "<sup>12</sup>C, <sup>13</sup>C, <sup>14</sup>C"
  meltingPoint: 4098
  boilingPoint: 4098
N:
  name: Nitrogen
  symbol: N
  atomicNumber: 7
  atomicWeight: 14.007
  group: 15
  period: 2
  block: p
  electronConfiguration: "[He] 2s<sup>2</sup>2p<sup>3</sup>"
  keyIsotopes: "<sup>14</sup>N"
  meltingPoint: 63.2
  boilingPoint: 77.355
O:
  name: Oxygen
  symbol: O
  atomicNumber: 8
  atomicWeight: 15.999
  group: 16
  period: 2
  block: p
  electronConfiguration: "[He] 2s<sup>2</sup>2p<sup>4</sup>"
  keyIsotopes: "<sup>16</sup>O"
  meltingPoint: 54.36
  boilingPoint: 90.188
F:
  name: Fluorine
  symbol: F
  atomicNumber: 9
  atomicWeight: 18.998
  group: 17
  period: 2
  block: p
  electronConfiguration: "[He] 2s<sup>2</sup>2p<sup>5</sup>"
  keyIsotopes: "<sup>19</sup>F"
  meltingPoint: 53.48
  boilingPoint: 85.04
Ne:
  name: Neon
  symbol: Ne
  atomicNumber: 10
  atomicWeight: 20.18
  group: 18
  period: 2
  block: p
  electronConfiguration: "[He] 2s<sup>2</sup>2p<sup>6</sup>"
  keyIsotopes: "<sup>20</sup>Ne"
  meltingPoint: 24.56
  boilingPoint: 27.104
Na:
  name: Sodium
  symbol: Na
  atomicNumber: 11
  atomicWeight: 22.99
  group: 1
  period: 3
  block: s
  electronConfiguration: "[Ne] 3s<sup>1</sup>"
  keyIsotopes: "<sup>23</sup>Na"
  meltingPoint: 370.944
  boilingPoint: 1156.09
Mg:
  name: Magnesium
  symbol: Mg
  atomicNumber: 12
  atomicWeight: 24.305
  group: 2
  period: 3
  block: s
  electronConfiguration: "[Ne] 3s<sup>2</sup>"
  keyIsotopes: "<sup>24</sup>Mg"
  meltingPoint: 923
  boilingPoint: 1363
Al:
  name: Aluminium
  symbol: Al
  atomicNumber: 13
  atomicWeight: 26.982
  group: 13
  period: 3
  block: p
  electronConfiguration: "[Ne] 3s<sup>2</sup>3p<sup>1</sup>"
  keyIsotopes: "<sup>27</sup>Al"
  meltingPoint: 933.473
  boilingPoint: 2792
Si:
  name: Silicon
  symbol: Si
  atomicNumber: 14
  atomicWeight: 28.085
  group: 14
  period: 3
  block: p
  electronConfiguration: "[Ne] 3s<sup>2</sup>3p<sup>2</sup>"
  keyIsotopes: "<sup>28</sup>Si, <sup>30</sup>Si"
  meltingPoint: 1687
  boilingPoint: 3538
P:
  name: Phosphorus
  symbol: P
  atomicNumber: 15
  atomicWeight: 30.974
  group: 15
  period: 3
  block: p
  electronConfiguration: "[Ne] 3s<sup>2</sup>3p<sup>3</sup>"
  keyIsotopes: "<sup>31</sup>P"
  meltingPoint: 317.3
  boilingPoint: 553.7
S:
  name: Sulfur
  symbol: S
  atomicNumber: 16
  atomicWeight: 32.06
  group: 16
  period: 3
  block: p
  electronConfiguration: "[Ne] 3s<sup>2</sup>3p<sup>4</sup>"
  keyIsotopes: "<sup>32</sup>S"
  meltingPoint: 388.36
  boilingPoint: 717.76
Cl:
  name: Chlorine
  symbol: Cl
  atomicNumber: 17
  atomicWeight: 35.45
  group: 17
  period: 3
  block: p
  electronConfiguration: "[Ne] 3s<sup>2</sup>3p<sup>5</sup>"
  keyIsotopes: "<sup>35</sup>Cl, <sup>37</sup>Cl"
  meltingPoint: 171.7
  boilingPoint: 239.11
Ar:
  name: Argon
  symbol: Ar
  atomicNumber: 18
  atomicWeight: 39.948
  group: 18
  period: 3
  block: p
  electronConfiguration: "[Ne] 3s<sup>2</sup>3p<sup>6</sup>"
  keyIsotopes: "<sup>40</sup>Ar"
  meltingPoint: 83.81
  boilingPoint: 87.302
K:
  name: Potassium
  symbol: K
  atomicNumber: 19
  atomicWeight: 39.098
  group: 1
  period: 4
  block: s
  electronConfiguration: "[Ar] 4s<sup>1</sup>"
  keyIsotopes: "<sup>39</sup>K"
  meltingPoint: 336.7
  boilingPoint: 1032
Ca:
  name: Calcium
  symbol: Ca
  atomicNumber: 20
  atomicWeight: 40.078
  group: 2
  period: 4
  block: s
  electronConfiguration: "[Ar] 4s<sup>2</sup>"
  keyIsotopes: "<sup>40</sup>Ca"
  meltingPoint: 1115
  boilingPoint: 1757
Sc:
  name: Scandium
  symbol: Sc
  atomicNumber: 21
  atomicWeight: 44.956
  group: 3
  period: 4
  block: d
  electronConfiguration: "[Ar] 3d<sup>1</sup>4s<sup>2</sup>"
  keyIsotopes: "<sup>45</sup>Sc"
  meltingPoint: 1814
  boilingPoint: 3109
Ti:
  name: Titanium
  symbol: Ti
  atomicNumber: 22
  atomicWeight: 47.867
  group: 4
  period: 4
  block: d
  electronConfiguration: "[Ar] 3d<sup>2</sup>4s<sup>2</sup>"
  keyIsotopes: "<sup>48</sup>Ti"
  meltingPoint: 1943
  boilingPoint: 3560
V:
  name: Vanadium
  symbol: V
  atomicNumber: 23
  atomicWeight: 50.942
  group: 5
  period: 4
  block: d
  electronConfiguration: "[Ar] 3d<sup>3</sup>4s<sup>2</sup>"
  keyIsotopes: "<sup>51</sup>V"
  meltingPoint: 2183
  boilingPoint: 3680
Cr:
  name: Chromium
  symbol: Cr
  atomicNumber: 24
  atomicWeight: 51.996
  group: 6
  period: 4
  block: d
  electronConfiguration: "[Ar] 3d<sup>5</sup>4s<sup>1</sup>"
  keyIsotopes: "<sup>52</sup>Cr"
  meltingPoint: 2180
  boilingPoint: 2944
Mn:
  name: Manganese
  symbol: Mn
  atomicNumber: 25
  atomicWeight: 54.938
  group: 7
  period: 4
  block: d
  electronConfiguration: "[Ar] 3d<sup>5</sup>4s<sup>2</sup>"
  keyIsotopes: "<sup>55</sup>Mn"
  meltingPoint: 1519
  boilingPoint: 2334
Fe:
  name: Iron
  symbol: Fe
  atomicNumber: 26
  atomicWeight: 55.845
  group: 8
  period: 4
  block: d
  electronConfiguration: "[Ar] 3d<sup>6</sup>4s<sup>2</sup>"
  keyIsotopes: "<sup>56</sup>Fe"
  meltingPoint: 1811
  boilingPoint: 3134
Co:
  name: Cobalt
  symbol: Co
  atomicNumber: 27
  atomicWeight: 58.933
  group: 9
  period: 4
  block: d
  electronConfiguration: "[Ar] 3d<sup>7</sup>4s<sup>2</sup>"
  keyIsotopes: "<sup>59</sup>Co"
  meltingPoint: 1768
  boilingPoint: 3200
Ni:
  name: Nickel
  symbol: Ni
  atomicNumber: 28
  atomicWeight: 58.693
  group: 10
  period: 4
  block: d
  electronConfiguration: "[Ar] 3d<sup>8</sup>4s<sup>2</sup>"
  keyIsotopes: "<sup>58</sup>Ni"
  meltingPoint: 1728
  boilingPoint: 3186
Cu:
  name: Copper
  symbol: Cu
  atomicNumber: 29
  atomicWeight: 63.546
  group: 11
  period: 4
  block: d
  electronConfiguration: "[Ar] 3d<sup>10</sup>4s<sup>1</sup>"
  keyIsotopes: "<sup>63</sup>Cu"
  meltingPoint: 1357.77
  boilingPoint: 2833
Zn:
  name: Zinc
  symbol: Zn
  atomicNumber: 30
  atomicWeight: 65.38
  group: 12
  period: 4
  block: d
  electronConfiguration: "[Ar] 3d<sup>10</sup>4s<sup>2</sup>"
  keyIsotopes: "<sup>64</sup>Zn"
  meltingPoint: 692.677
  boilingPoint: 1180
Ga:
  name: Gallium
  symbol: Ga
  atomicNumber: 31
  atomicWeight: 69.723
  group: 13
  period: 4
  block: p
  electronConfiguration: "[Ar] 3d<sup>10</sup>4s<sup>2</sup>4p<sup>1</sup>"
  keyIsotopes: "<sup>69</sup>Ga"
  meltingPoint: 302.9146
  boilingPoint: 2502
Ge:
  name: Germanium
  symbol: Ge
  atomicNumber: 32
  atomicWeight: 72.63
  group: 14
  period: 4
  block: p
  electronConfiguration: "[Ar] 3d<sup>10</sup>4s<sup>2</sup>4p<sup>2</sup>"
  keyIsotopes: "<sup>73</sup>Ge, <sup>74</sup>Ge"
  meltingPoint: 1211.4
  boilingPoint: 3106
As:
  name: Arsenic
  symbol: As
  atomicNumber: 33
  atomicWeight: 74.922
  group: 15
  period: 4
  block: p
  electronConfiguration: "[Ar] 3d<sup>10</sup>4s<sup>2</sup>4p<sup>3</sup>"
  keyIsotopes: "<sup>75</sup>As"
  meltingPoint: 889
  boilingPoint: 889
Se:
  name: Selenium
  symbol: Se
  atomicNumber: 34
  atomicWeight: 78.971
  group: 16
  period: 4
  block: p
  electronConfiguration: "[Ar] 3d<sup>10</sup>4s<sup>2</sup>4p<sup>4</sup>"
  keyIsotopes: "<sup>80</sup>Se"
  meltingPoint: 494
  boilingPoint: 958
Br:
  name: Bromine
  symbol: Br
  atomicNumber: 35
  atomicWeight: 79.904
  group: 17
  period: 4
  block: p
  electronConfiguration: "[Ar] 3d<sup>10</sup>4s<sup>2</sup>4p<sup>5</sup>"
  keyIsotopes: "<sup>79</sup>Br"
  meltingPoint: 266
  boilingPoint: 332
Kr:
  name: Krypton
  symbol: Kr
  atomicNumber: 36
  atomicWeight: 83.798
  group: 18
  period: 4
  block: p
  electronConfiguration: "[Ar] 3d<sup>10</sup>4s<sup>2</sup>4p<sup>6</sup>"
  keyIsotopes: "<sup>84</sup>Kr"
  meltingPoint: 115.78
  boilingPoint: 119.735
Rb:
  name: Rubidium
  symbol: Rb
  atomicNumber: 37
  atomicWeight: 85.468
  group: 1
  period: 5
  block: s
  electronConfiguration: "[Kr] 5s<sup>1</sup>"
  keyIsotopes: "<sup>85</sup>Rb, <sup>87</sup>Rb"
  meltingPoint: 312.45
  boilingPoint: 961
Sr:
  name: Strontium
  symbol: Sr
  atomicNumber: 38
  atomicWeight: 87.62
  group: 2
  period: 5
  block: s
  electronConfiguration: "[Kr] 5s<sup>2</sup>"
  keyIsotopes: "<sup>86</sup>Sr, <sup>87</sup>Sr, <sup>88</sup>Sr"
  meltingPoint: 1050
  boilingPoint: 1650
Y:
  name: Yttrium
  symbol: Y
  atomicNumber: 39
  atomicWeight: 88.906
  group: 3
  period: 5
  block: d
  electronConfiguration: "[Kr] 4d<sup>1</sup>5s<sup>2</sup>"
  keyIsotopes: "<sup>89</sup>Y"
  meltingPoint: 1795
  boilingPoint: 3618
Zr:
  name: Zirconium
  symbol: Zr
  atomicNumber: 40
  atomicWeight: 91.224
  group: 4
  period: 5
  block: d
  electronConfiguration: "[Kr] 4d<sup>2</sup>5s<sup>2</sup>"
  keyIsotopes: "<sup>90</sup>Zr, <sup>92</sup>Zr, <sup>94</sup>Zr"
  meltingPoint: 2127
  boilingPoint: 4679
Nb:
  name: Niobium
  symbol: Nb
  atomicNumber: 41
  atomicWeight: 92.906
  group: 5
  period: 5
  block: d
  electronConfiguration: "[Kr] 4d<sup>4</sup>5s<sup>1</sup>"
  keyIsotopes: "<sup>93</sup>Nb"
  meltingPoint: 2750
  boilingPoint: 5014
Mo:
  name: Molybdenum
  symbol: Mo
  atomicNumber: 42
  atomicWeight: 95.95
  group: 6
  period: 5
  block: d
  electronConfiguration: "[Kr] 4d<sup>5</sup>5s<sup>1</sup>"
  keyIsotopes: "<sup>95</sup>Mo, <sup>96</sup>Mo, <sup>98</sup>Mo"
  meltingPoint: 2895
  boilingPoint: 4912
Tc:
  name: Technetium
  symbol: Tc
  atomicNumber: 43
  atomicWeight: "[98]"
  group: 7
  period: 5
  block: d
  electronConfiguration: "[Kr] 4d<sup>5</sup>5s<sup>2</sup>"
  keyIsotopes: Unknown
  meltingPoint: 2430
  boilingPoint: 4535
Ru:
  name: Ruthenium
  symbol: Ru
  atomicNumber: 44
  atomicWeight: 101.07
  group: 8
  period: 5
  block: d
  electronConfiguration: "[Kr] 4d<sup>7</sup>5s<sup>1</sup>"
  keyIsotopes: "<sup>101</sup>Ru, <sup>102</sup>Ru, <sup>104</sup>Ru"
  meltingPoint: 2606
  boilingPoint: 4420
Rh:
  name: Rhodium
  symbol: Rh
  atomicNumber: 45
  atomicWeight: 102.906
  group: 9
  period: 5
  block: d
  electronConfiguration: "[Kr] 4d<sup>8</sup>5s<sup>1</sup>"
  keyIsotopes: "<sup>103</sup>Rh"
  meltingPoint: 2236
  boilingPoint: 3968
Pd:
  name: Palladium
  symbol: Pd
  atomicNumber: 46
  atomicWeight: 106.42
  group: 10
  period: 5
  block: d
  electronConfiguration: "[Kr] 4d<sup>10</sup>"
  keyIsotopes: "<sup>106</sup>Pd"
  meltingPoint: 1828
  boilingPoint: 3236
Ag:
  name: Silver
  symbol: Ag
  atomicNumber: 47
  atomicWeight: 107.868
  group: 11
  period: 5
  block: d
  electronConfiguration: "[Kr] 4d<sup>10</sup>5s<sup>1</sup>"
  keyIsotopes: "<sup>107</sup>Ag"
  meltingPoint: 1234.93
  boilingPoint: 2435
Cd:
  name: Cadmium
  symbol: Cd
  atomicNumber: 48
  atomicWeight: 112.414
  group: 12
  period: 5
  block: d
  electronConfiguration: "[Kr] 4d<sup>10</sup>5s<sup>2</sup>"
  keyIsotopes: "<sup>114</sup>Cd"
  meltingPoint: 594.219
  boilingPoint: 1040
In:
  name: Indium
  symbol: In
  atomicNumber: 49
  atomicWeight: 114.818
  group: 13
  period: 5
  block: p
  electronConfiguration: "[Kr] 4d<sup>10</sup>5s<sup>2</sup>5p<sup>1</sup>"
  keyIsotopes: "<sup>115</sup>In"
  meltingPoint: 429.75
  boilingPoint: 2300
Sn:
  name: Tin
  symbol: Sn
  atomicNumber: 50
  atomicWeight: 118.71
  group: 14
  period: 5
  block: p
  electronConfiguration: "[Kr] 4d<sup>10</sup>5s<sup>2</sup>5p<sup>2</sup>"
  keyIsotopes: "<sup>120</sup>Sn"
  meltingPoint: 505.078
  boilingPoint: 2859
Sb:
  name: Antimony
  symbol: Sb
  atomicNumber: 51
  atomicWeight: 121.76
  group: 15
  period: 5
  block: p
  electronConfiguration: "[Kr] 4d<sup>10</sup>5s<sup>2</sup>5p<sup>3</sup>"
  keyIsotopes: "<sup>121</sup>Sb"
  meltingPoint: 903.778
  boilingPoint: 1860
Te:
  name: Tellurium
  symbol: Te
  atomicNumber: 52
  atomicWeight: 127.6
  group: 16
  period: 5
  block: p
  electronConfiguration: "[Kr] 4d<sup>10</sup>5s<sup>2</sup>5p<sup>4</sup>"
  keyIsotopes: "<sup>130</sup>Te"
  meltingPoint: 722.66
  boilingPoint: 1261
I:
  name: Iodine
  symbol: I
  atomicNumber: 53
  atomicWeight: 126.904
  group: 17
  period: 5
  block: p
  electronConfiguration: "[Kr] 4d<sup>10</sup>5s<sup>2</sup>5p<sup>5</sup>"
  keyIsotopes: "<sup>127</sup>I"
  meltingPoint: 386.9
  boilingPoint: 457.6
Xe:
  name: Xenon
  symbol: Xe
  atomicNumber: 54
  atomicWeight: 131.293
  group: 18
  period: 5
  block: p
  electronConfiguration: "[Kr] 4d<sup>10</sup>5s<sup>2</sup>5p<sup>6</sup>"
  keyIsotopes: "<sup>132</sup>Xe"
  meltingPoint: 161.4
  boilingPoint: 165.051
Cs:
  name: Caesium
  symbol: Cs
  atomicNumber: 55
  atomicWeight: 132.905
  group: 1
  period: 6
  block: s
  electronConfiguration: "[Xe] 6s<sup>1</sup>"
  keyIsotopes: "<sup>133</sup>Cs"
  meltingPoint: 301.7
  boilingPoint: 944
Ba:
  name: Barium
  symbol: Ba
  atomicNumber: 56
  atomicWeight: 137.327
  group: 2
  period: 6
  block: s
  electronConfiguration: "[Xe] 6s<sup>2</sup>"
  keyIsotopes: "<sup>138</sup>Ba"
  meltingPoint: 1000
  boilingPoint: 2118
La:
  name: Lanthanum
  symbol: La
  atomicNumber: 57
  atomicWeight: 138.905
  group: Lanthanides
  period: 6
  block: d
  electronConfiguration: "[Xe] 5d<sup>1</sup>6s<sup>2</sup>"
  keyIsotopes: "<sup>139</sup>La"
  meltingPoint: 1193
  boilingPoint: 3737
Ce:
  name: Cerium
  symbol: Ce
  atomicNumber: 58
  atomicWeight: 140.116
  group: Lanthanides
  period: 6
  block: f
  electronConfiguration: "[Xe] 4f<sup>1</sup>5d<sup>1</sup>6s<sup>2</sup>"
  keyIsotopes: "<sup>140</sup>Ce"
  meltingPoint: 1072
  boilingPoint: 3716
Pr:
  name: Praseodymium
  symbol: Pr
  atomicNumber: 59
  atomicWeight: 140.908
  group: Lanthanides
  period: 6
  block: f
  electronConfiguration: "[Xe] 4f<sup>3</sup>6s<sup>2</sup>"
  keyIsotopes: "<sup>141</sup>Pr"
  meltingPoint: 1204
  boilingPoint: 3793
Nd:
  name: Neodymium
  symbol: Nd
  atomicNumber: 60
  atomicWeight: 144.242
  group: Lanthanides
  period: 6
  block: f
  electronConfiguration: "[Xe] 4f<sup>4</sup>6s<sup>2</sup>"
  keyIsotopes: "<sup>142</sup>Nd"
  meltingPoint: 1289
  boilingPoint: 3347
Pm:
  name: Promethium
  symbol: Pm
  atomicNumber: 61
  atomicWeight: "[145]"
  group: Lanthanides
  period: 6
  block: f
  electronConfiguration: "[Xe] 4f<sup>5</sup>6s<sup>2</sup>"
  keyIsotopes: "<sup>145</sup>Pm, <sup>147</sup>Pm"
  meltingPoint: 1315
  boilingPoint: 3273
Sm:
  name: Samarium
  symbol: Sm
  atomicNumber: 62
  atomicWeight: 150.36
  group: Lanthanides
  period: 6
  block: f
  electronConfiguration: "[Xe] 4f<sup>6</sup>6s<sup>2</sup>"
  keyIsotopes: "<sup>152</sup>Sm"
  meltingPoint: 1345
  boilingPoint: 2067
Eu:
  name: Europium
  symbol: Eu
  atomicNumber: 63
  atomicWeight: 151.964
  group: Lanthanides
  period: 6
  block: f
  electronConfiguration: "[Xe] 4f<sup>7</sup>6s<sup>2</sup>"
  keyIsotopes: "<sup>153</sup>Eu"
  meltingPoint: 1095
  boilingPoint: 1802
Gd:
  name: Gadolinium
  symbol: Gd
  atomicNumber: 64
  atomicWeight: 157.25
  group: Lanthanides
  period: 6
  block: f
  electronConfiguration: "[Xe] 4f<sup>7</sup>5d<sup>1</sup>6s<sup>2</sup>"
  keyIsotopes: "<sup>158</sup>Gd"
  meltingPoint: 1586
  boilingPoint: 3546
Tb:
  name: Terbium
  symbol: Tb
  atomicNumber: 65
  atomicWeight: 158.925
  group: Lanthanides
  period: 6
  block: f
  electronConfiguration: "[Xe] 4f<sup>9</sup>6s<sup>2</sup>"
  keyIsotopes: "<sup>159</sup>Tb"
  meltingPoint: 1632
  boilingPoint: 3503
Dy:
  name: Dysprosium
  symbol: Dy
  atomicNumber: 66
  atomicWeight: 162.5
  group: Lanthanides
  period: 6
  block: f
  electronConfiguration: "[Xe] 4f<sup>10</sup>6s<sup>2</sup>"
  keyIsotopes: "<sup>164</sup>Dy"
  meltingPoint: 1685
  boilingPoint: 2840
Ho:
  name: Holmium
  symbol: Ho
  atomicNumber: 67
  atomicWeight: 164.93
  group: Lanthanides
  period: 6
  block: f
  electronConfiguration: "[Xe] 4f<sup>11</sup>6s<sup>2</sup>"
  keyIsotopes: "<sup>165</sup>Ho"
  meltingPoint: 1745
  boilingPoint: 2973
Er:
  name: Erbium
  symbol: Er
  atomicNumber: 68
  atomicWeight: 167.259
  group: Lanthanides
  period: 6
  block: f
  electronConfiguration: "[Xe] 4f<sup>12</sup>6s<sup>2</sup>"
  keyIsotopes: "<sup>166</sup>Er"
  meltingPoint: 1802
  boilingPoint: 3141
Tm:
  name: Thulium
  symbol: Tm
  atomicNumber: 69
  atomicWeight: 168.934
  group: Lanthanides
  period: 6
  block: f
  electronConfiguration: "[Xe] 4f<sup>13</sup>6s<sup>2</sup>"
  keyIsotopes: "<sup>169</sup>Tm"
  meltingPoint: 1818
  boilingPoint: 2223
Yb:
  name: Ytterbium
  symbol: Yb
  atomicNumber: 70
  atomicWeight: 173.045
  group: Lanthanides
  period: 6
  block: f
  electronConfiguration: "[Xe] 4f<sup>14</sup>6s<sup>2</sup>"
  keyIsotopes: "<sup>172</sup>Yb, <sup>173</sup>Yb, <sup>174</sup>Yb"
  meltingPoint: 1097
  boilingPoint: 1469
Lu:
  name: Lutetium
  symbol: Lu
  atomicNumber: 71
  atomicWeight: 174.967
  group: Lanthanides
  period: 6
  block: f
  electronConfiguration: "[Xe] 4f<sup>14</sup>5d<sup>1</sup>6s<sup>2</sup>"
  keyIsotopes: "<sup>175</sup>Lu"
  meltingPoint: 1936
  boilingPoint: 3675
Hf:
  name: Hafnium
  symbol: Hf
  atomicNumber: 72
  atomicWeight: 178.49
  group: 4
  period: 6
  block: d
  electronConfiguration: "[Xe] 4f<sup>14</sup>5d<sup>2</sup>6s<sup>2</sup>"
  keyIsotopes: "<sup>177</sup>Hf, <sup>178</sup>Hf, <sup>180</sup>Hf"
  meltingPoint: 2506
  boilingPoint: 4873
Ta:
  name: Tantalum
  symbol: Ta
  atomicNumber: 73
  atomicWeight: 180.948
  group: 5
  period: 6
  block: d
  electronConfiguration: "[Xe] 4f<sup>14</sup>5d<sup>3</sup>6s<sup>2</sup>"
  keyIsotopes: "<sup>180</sup>Ta, <sup>181</sup>Ta"
  meltingPoint: 3290
  boilingPoint: 5728
W:
  name: Tungsten
  symbol: W
  atomicNumber: 74
  atomicWeight: 183.84
  group: 6
  period: 6
  block: d
  electronConfiguration: "[Xe] 4f<sup>14</sup>5d<sup>4</sup>6s<sup>2</sup>"
  keyIsotopes: "<sup>182</sup>W, <sup>184</sup>W, <sup>186</sup>W"
  meltingPoint: 3687
  boilingPoint: 5828
Re:
  name: Rhenium
  symbol: Re
  atomicNumber: 75
  atomicWeight: 186.207
  group: 7
  period: 6
  block: d
  electronConfiguration: "[Xe] 4f<sup>14</sup>5d<sup>5</sup>6s<sup>2</sup>"
  keyIsotopes: "<sup>187</sup>Re"
  meltingPoint: 3458
  boilingPoint: 5863
Os:
  name: Osmium
  symbol: Os
  atomicNumber: 76
  atomicWeight: 190.23
  group: 8
  period: 6
  block: d
  electronConfiguration: "[Xe] 4f<sup>14</sup>5d<sup>6</sup>6s<sup>2</sup>"
  keyIsotopes: "<sup>192</sup>Os"
  meltingPoint: 3306
  boilingPoint: 5281
Ir:
  name: Iridium
  symbol: Ir
  atomicNumber: 77
  atomicWeight: 192.217
  group: 9
  period: 6
  block: d
  electronConfiguration: "[Xe] 4f<sup>14</sup>5d<sup>7</sup>6s<sup>2</sup>"
  keyIsotopes: "<sup>193</sup>Ir"
  meltingPoint: 2719
  boilingPoint: 4701
Pt:
  name: Platinum
  symbol: Pt
  atomicNumber: 78
  atomicWeight: 195.084
  group: 10
  period: 6
  block: d
  electronConfiguration: "[Xe] 4f<sup>14</sup>5d<sup>9</sup>6s<sup>1</sup>"
  keyIsotopes: "<sup>195</sup>Pt"
  meltingPoint: 2041.4
  boilingPoint: 4098
Au:
  name: Gold
  symbol: Au
  atomicNumber: 79
  atomicWeight: 196.967
  group: 11
  period: 6
  block: d
  electronConfiguration: "[Xe] 4f<sup>14</sup>5d<sup>10</sup>6s<sup>1</sup>"
  keyIsotopes: "<sup>197</sup>Au"
  meltingPoint: 1337.33
  boilingPoint: 3109
Hg:
  name: Mercury
  symbol: Hg
  atomicNumber: 80
  atomicWeight: 200.592
  group: 12
  period: 6
  block: d
  electronConfiguration: "[Xe] 4f<sup>14</sup>5d<sup>10</sup>6s<sup>2</sup>"
  keyIsotopes: "<sup>202</sup>Hg"
  meltingPoint: 234.321
  boilingPoint: 629.769
Tl:
  name: Thallium
  symbol: Tl
  atomicNumber: 81
  atomicWeight: 204.38
  group: 13
  period: 6
  block: p
  electronConfiguration: "[Xe] 4f<sup>14</sup>5d<sup>10</sup>6s<sup>2</sup>6p<sup>1</sup>"
  keyIsotopes: "<sup>205</sup>Tl"
  meltingPoint: 577
  boilingPoint: 1746
Pb:
  name: Lead
  symbol: Pb
  atomicNumber: 82
  atomicWeight: 207.2
  group: 14
  period: 6
  block: p
  electronConfiguration: "[Xe] 4f<sup>14</sup>5d<sup>10</sup>6s<sup>2</sup>6p<sup>2</sup>"
  keyIsotopes: "<sup>208</sup>Pb"
  meltingPoint: 600.612
  boilingPoint: 2022
Bi:
  name: Bismuth
  symbol: Bi
  atomicNumber: 83
  atomicWeight: 208.98
  group: 15
  period: 6
  block: p
  electronConfiguration: "[Xe] 4f<sup>14</sup>5d<sup>10</sup>6s<sup>2</sup>6p<sup>3</sup>"
  keyIsotopes: "<sup>209</sup>Bi"
  meltingPoint: 544.556
  boilingPoint: 1837
Po:
  name: Polonium
  symbol: Po
  atomicNumber: 84
  atomicWeight: "[209]"
  group: 16
  period: 6
  block: p
  electronConfiguration: "[Xe] 4f<sup>14</sup>5d<sup>10</sup>6s<sup>2</sup>6p<sup>4</sup>"
  keyIsotopes: "<sup>209</sup>Po, <sup>210</sup>Po"
  meltingPoint: 527
  boilingPoint: 1235
At:
  name: Astatine
  symbol: At
  atomicNumber: 85
  atomicWeight: "[210]"
  group: 17
  period: 6
  block: p
  electronConfiguration: "[Xe] 4f<sup>14</sup>5d106s26p5"
  keyIsotopes: "<sup>210</sup>At, <sup>211</sup>At"
  meltingPoint: 573
  boilingPoint: 623
Rn:
  name: Radon
  symbol: Rn
  atomicNumber: 86
  atomicWeight: "[222]"
  group: 18
  period: 6
  block: p
  electronConfiguration: "[Xe] 4f<sup>14</sup>5d<sup>10</sup>6s<sup>2</sup>6p<sup>6</sup>"
  keyIsotopes: "<sup>211</sup>Rn, <sup>220</sup>Rn, <sup>222</sup>Rn"
  meltingPoint: 202
  boilingPoint: 211.5
Fr:
  name: Francium
  symbol: Fr
  atomicNumber: 87
  atomicWeight: "[223]"
  group: 1
  period: 7
  block: s
  electronConfiguration: "[Rn] 7s<sup>1</sup>"
  keyIsotopes: "<sup>223</sup>Fr"
  meltingPoint: 294
  boilingPoint: 923
Ra:
  name: Radium
  symbol: Ra
  atomicNumber: 88
  atomicWeight: "[226]"
  group: 2
  period: 7
  block: s
  electronConfiguration: "[Rn] 7s<sup>2</sup>"
  keyIsotopes: "<sup>226</sup>Ra"
  meltingPoint: 969
  boilingPoint: 1773
Ac:
  name: Actinium
  symbol: Ac
  atomicNumber: 89
  atomicWeight: "[227]"
  group: Actinides
  period: 7
  block: d
  electronConfiguration: "[Rn] 6d<sup>1</sup>7s<sup>2</sup>"
  keyIsotopes: "<sup>227</sup>Ac"
  meltingPoint: 1773
  boilingPoint: 3473
Th:
  name: Thorium
  symbol: Th
  atomicNumber: 90
  atomicWeight: 232.038
  group: Actinides
  period: 7
  block: f
  electronConfiguration: "[Rn] 6d<sup>2</sup>7s<sup>2</sup>"
  keyIsotopes: "<sup>230</sup>Th, <sup>232</sup>Th"
  meltingPoint: 2023
  boilingPoint: 5058
Pa:
  name: Protactinium
  symbol: Pa
  atomicNumber: 91
  atomicWeight: 231.036
  group: Actinides
  period: 7
  block: f
  electronConfiguration: "[Rn] 5f<sup>2</sup>6d<sup>1</sup>7s<sup>2</sup>"
  keyIsotopes: "<sup>231</sup>Pa"
  meltingPoint: 1845
  boilingPoint: 4273
U:
  name: Uranium
  symbol: U
  atomicNumber: 92
  atomicWeight: 238.029
  group: Actinides
  period: 7
  block: f
  electronConfiguration: "[Rn] 5f<sup>3</sup>6d<sup>1</sup>7s<sup>2</sup>"
  keyIsotopes: "<sup>234</sup>U, <sup>235</sup>U, <sup>238</sup>U"
  meltingPoint: 1408
  boilingPoint: 4404
Np:
  name: Neptunium
  symbol: Np
  atomicNumber: 93
  atomicWeight: "[237]"
  group: Actinides
  period: 7
  block: f
  electronConfiguration: "[Rn] 5f<sup>4</sup>6d<sup>1</sup>7s<sup>2</sup>"
  keyIsotopes: "<sup>237</sup>Np"
  meltingPoint: 917
  boilingPoint: 4175
Pu:
  name: Plutonium
  symbol: Pu
  atomicNumber: 94
  atomicWeight: "[244]"
  group: Actinides
  period: 7
  block: f
  electronConfiguration: "[Rn] 5f<sup>6</sup>7s<sup>2</sup>"
  keyIsotopes: "<sup>238</sup>Pu, <sup>239</sup>Pu, <sup>240</sup>Pu"
  meltingPoint: 913
  boilingPoint: 3501
Am:
  name: Americium
  symbol: Am
  atomicNumber: 95
  atomicWeight: "[243]"
  group: Actinides
  period: 7
  block: f
  electronConfiguration: "[Rn] 5f<sup>7</sup>7s<sup>2</sup>"
  keyIsotopes: "<sup>241</sup>Am, <sup>243</sup>Am"
  meltingPoint: 1449
  boilingPoint: 2284
Cm:
  name: Curium
  symbol: Cm
  atomicNumber: 96
  atomicWeight: "[247]"
  group: Actinides
  period: 7
  block: f
  electronConfiguration: "[Rn] 5f<sup>7</sup>6d<sup>1</sup>7s<sup>2</sup>"
  keyIsotopes: "<sup>243</sup>Cm, <sup>248</sup>Cm"
  meltingPoint: 1618
  boilingPoint: Unknown
Bk:
  name: Berkelium
  symbol: Bk
  atomicNumber: 97
  atomicWeight: "[247]"
  group: Actinides
  period: 7
  block: f
  electronConfiguration: "[Rn] 5f<sup>9</sup>7s<sup>2</sup>"
  keyIsotopes: "<sup>247</sup>Bk, <sup>249</sup>Bk"
  meltingPoint: 1259
  boilingPoint: Unknown
Cf:
  name: Californium
  symbol: Cf
  atomicNumber: 98
  atomicWeight: "[251]"
  group: Actinides
  period: 7
  block: f
  electronConfiguration: "[Rn] 5f<sup>10</sup>7s<sup>2</sup>"
  keyIsotopes: "<sup>249</sup>Cf, <sup>252</sup>Cf"
  meltingPoint: 1173
  boilingPoint: Unknown
Es:
  name: Einsteinium
  symbol: Es
  atomicNumber: 99
  atomicWeight: "[252]"
  group: Actinides
  period: 7
  block: f
  electronConfiguration: "[Rn] 5f<sup>11</sup>7s<sup>2</sup>"
  keyIsotopes: "<sup>252</sup>Es"
  meltingPoint: 1133
  boilingPoint: Unknown
Fm:
  name: Fermium
  symbol: Fm
  atomicNumber: 100
  atomicWeight: "[257]"
  group: Actinides
  period: 7
  block: f
  electronConfiguration: "[Rn] 5f<sup>12</sup>7s<sup>2</sup>"
  keyIsotopes: "<sup>257</sup>Fm"
  meltingPoint: 1800
  boilingPoint: Unknown
Md:
  name: Mendelevium
  symbol: Md
  atomicNumber: 101
  atomicWeight: "[258]"
  group: Actinides
  period: 7
  block: f
  electronConfiguration: "[Rn] 5f<sup>13</sup>7s<sup>2</sup>"
  keyIsotopes: "<sup>258</sup>Md, <sup>260</sup>Md"
  meltingPoint: 1100
  boilingPoint: Unknown
'No':
  name: Nobelium
  symbol: 'No'
  atomicNumber: 102
  atomicWeight: "[259]"
  group: Actinides
  period: 7
  block: f
  electronConfiguration: "[Rn] 5f<sup>14</sup>7s<sup>2</sup>"
  keyIsotopes: "<sup>259</sup>No"
  meltingPoint: 1100
  boilingPoint: Unknown
Lr:
  name: Lawrencium
  symbol: Lr
  atomicNumber: 103
  atomicWeight: "[262]"
  group: Actinides
  period: 7
  block: f
  electronConfiguration: "[Rn] 5f<sup>14</sup>7s<sup>2</sup>7p<sup>1</sup>"
  keyIsotopes: "<sup>262</sup>Lr"
  meltingPoint: 1900
  boilingPoint: Unknown
Rf:
  name: Rutherfordium
  symbol: Rf
  atomicNumber: 104
  atomicWeight: "[267]"
  group: 4
  period: 7
  block: d
  electronConfiguration: "[Rn] 5f<sup>14</sup>6d<sup>2</sup>7s<sup>2</sup>"
  keyIsotopes: "<sup>265</sup>Rf"
  meltingPoint: Unknown
  boilingPoint: Unknown
Db:
  name: Dubnium
  symbol: Db
  atomicNumber: 105
  atomicWeight: "[268]"
  group: 5
  period: 7
  block: d
  electronConfiguration: "[Rn] 5f<sup>14</sup>6d<sup>3</sup>7s<sup>2</sup>"
  keyIsotopes: "<sup>268</sup>Db"
  meltingPoint: Unknown
  boilingPoint: Unknown
Sg:
  name: Seaborgium
  symbol: Sg
  atomicNumber: 106
  atomicWeight: "[269]"
  group: 6
  period: 7
  block: d
  electronConfiguration: "[Rn] 5f<sup>14</sup>6d<sup>4</sup>7s<sup>2</sup>"
  keyIsotopes: "<sup>271</sup>Sg"
  meltingPoint: Unknown
  boilingPoint: Unknown
Bh:
  name: Bohrium
  symbol: Bh
  atomicNumber: 107
  atomicWeight: "[270]"
  group: 7
  period: 7
  block: d
  electronConfiguration: "[Rn] 5f<sup>14</sup>6d<sup>5</sup>7s<sup>2</sup>"
  keyIsotopes: "<sup>272</sup>Bh"
  meltingPoint: Unknown
  boilingPoint: Unknown
Hs:
  name: Hassium
  symbol: Hs
  atomicNumber: 108
  atomicWeight: "[269]"
  group: 8
  period: 7
  block: d
  electronConfiguration: "[Rn] 5f<sup>14</sup>6d<sup>6</sup>7s<sup>2</sup>"
  keyIsotopes: "<sup>270</sup>Hs"
  meltingPoint: Unknown
  boilingPoint: Unknown
Mt:
  name: Meitnerium
  symbol: Mt
  atomicNumber: 109
  atomicWeight: "[278]"
  group: 9
  period: 7
  block: d
  electronConfiguration: "[Rn] 5f<sup>14</sup>6d<sup>7</sup>7s<sup>2</sup>"
  keyIsotopes: "<sup>276</sup>Mt"
  meltingPoint: Unknown
  boilingPoint: Unknown
Ds:
  name: Darmstadtium
  symbol: Ds
  atomicNumber: 110
  atomicWeight: "[281]"
  group: 10
  period: 7
  block: d
  electronConfiguration: "[Rn] 5f<sup>14</sup>6d<sup>9</sup>7s<sup>1</sup>"
  keyIsotopes: "<sup>281</sup>Ds"
  meltingPoint: Unknown
  boilingPoint: Unknown
Rg:
  name: Roentgenium
  symbol: Rg
  atomicNumber: 111
  atomicWeight: "[280]"
  group: 11
  period: 7
  block: d
  electronConfiguration: "[Rn] 5f<sup>14</sup>6d<sup>10</sup>7s<sup>1</sup>"
  keyIsotopes: "<sup>280</sup>Rg"
  meltingPoint: Unknown
  boilingPoint: Unknown
Cn:
  name: Copernicium
  symbol: Cn
  atomicNumber: 112
  atomicWeight: "[285]"
  group: 12
  period: 7
  block: d
  electronConfiguration: "[Rn] 5f<sup>14</sup>6d<sup>10</sup>7s<sup>2</sup>"
  keyIsotopes: "<sup>285</sup>Cn"
  meltingPoint: Unknown
  boilingPoint: Unknown
Nh:
  name: Nihonium
  symbol: Nh
  atomicNumber: 113
  atomicWeight: "[286]"
  group: 13
  period: 7
  block: p
  electronConfiguration: "[Rn] 5f<sup>14</sup>6d<sup>10</sup>7s<sup>2</sup>7p<sup>1</sup>"
  keyIsotopes: "<sup>286</sup>Nh"
  meltingPoint: Unknown
  boilingPoint: Unknown
Fl:
  name: Flerovium
  symbol: Fl
  atomicNumber: 114
  atomicWeight: "[289]"
  group: 14
  period: 7
  block: p
  electronConfiguration: "[Rn] 5f<sup>14</sup>6d<sup>10</sup>7s<sup>2</sup>7p<sup>2</sup>"
  keyIsotopes: "<sup>289</sup>Fl"
  meltingPoint: Unknown
  boilingPoint: Unknown
Mc:
  name: Moscovium
  symbol: Mc
  atomicNumber: 115
  atomicWeight: "[289]"
  group: 15
  period: 7
  block: p
  electronConfiguration: "[Rn] 5f<sup>14</sup>6d<sup>10</sup>7s<sup>2</sup>7p<sup>3</sup>"
  keyIsotopes: "<sup>289</sup>Mc"
  meltingPoint: Unknown
  boilingPoint: Unknown
Lv:
  name: Livermorium
  symbol: Lv
  atomicNumber: 116
  atomicWeight: "[293]"
  group: 16
  period: 7
  block: p
  electronConfiguration: "[Rn] 5f<sup>14</sup>6d<sup>10</sup>7s<sup>2</sup>7p<sup>4</sup>"
  keyIsotopes: "<sup>293</sup>Lv"
  meltingPoint: Unknown
  boilingPoint: Unknown
Ts:
  name: Tennessine
  symbol: Ts
  atomicNumber: 117
  atomicWeight: "[294]"
  group: 17
  period: 7
  block: p
  electronConfiguration: "[Rn] 5f<sup>14</sup>6d<sup>10</sup>7s<sup>2</sup>7p<sup>5</sup>"
  keyIsotopes: "<sup>294</sup>Ts"
  meltingPoint: Unknown
  boilingPoint: Unknown
Og:
  name: Oganesson
  symbol: Og
  atomicNumber: 118
  atomicWeight: "[294]"
  group: 18
  period: 7
  block: p
  electronConfiguration: "[Rn] 5f<sup>14</sup>6d<sup>10</sup>7s<sup>2</sup>7p<sup>6</sup>"
  keyIsotopes: "<sup>294</sup>Og"
  meltingPoint: Unknown
  boilingPoint: Unknown
